ITEM: TIMESTEP
0
ITEM: NUMBER OF ATOMS
20
ITEM: BOX BOUNDS pp pp pp
0.0000000000000000e+00 2.0000000000000000e+01
0.0000000000000000e+00 2.0000000000000000e+01
0.0000000000000000e+00 2.0000000000000000e+01
ITEM: ATOMS id mol type xu yu zu
1 1 1 1 10 10
2 1 1 2 10 10
3 1 1 3 10 10
4 1 1 4 10 10
5 1 1 5 10 10
6 1 1 6 10 10
7 1 1 7 10 10
8 1 1 8 10 10
9 1 1 9 10 10
10 1 1 10 10 10
11 1 1 11 10 10
12 1 1 12 10 10
13 1 1 13 10 10
14 1 1 14 10 10
15 1 1 15 10 10
16 1 1 16 10 10
17 1 1 17 10 10
18 1 1 18 10 10
19 1 1 19 10 10
20 1 1 20 10 10
ITEM: TIMESTEP
100
ITEM: NUMBER OF ATOMS
20
ITEM: BOX BOUNDS pp pp pp
0.0000000000000000e+00 2.0000000000000000e+01
0.0000000000000000e+00 2.0000000000000000e+01
0.0000000000000000e+00 2.0000000000000000e+01
ITEM: ATOMS id mol type xu yu zu
1 1 1 0.84653118 10.034204 10.101871
2 1 1 1.9302295 9.988957 9.9108334
3 1 1 3.1483591 10.012327 10.059212
4 1 1 3.9433073 9.8758558 10.122187
5 1 1 5.1711301 9.9687863 9.9203852
6 1 1 5.9347398 9.8792326 9.9618106
7 1 1 6.8667065 10.099041 9.9991672
8 1 1 8.1566601 10.084251 9.873518
9 1 1 9.0157907 9.8668728 10.131913
10 1 1 10.00604 9.9710387 10.025543
11 1 1 10.911057 9.8654864 9.8560804
12 1 1 12.192152 10.15476 10.133102
13 1 1 13.059181 10.100435 10.101003
14 1 1 13.950513 9.8899065 9.9449432
15 1 1 14.999892 10.016565 9.9936574
16 1 1 15.857635 10.010872 9.8744375
17 1 1 17.000322 9.9684034 9.9315508
18 1 1 17.839884 10.161916 10.029047
19 1 1 18.904437 10.151509 10.039622
20 1 1 20.115937 9.8928038 10.020766
ITEM: TIMESTEP
200
ITEM: NUMBER OF ATOMS
20
ITEM: BOX BOUNDS pp pp pp
0.0000000000000000e+00 2.0000000000000000e+01
0.0000000000000000e+00 2.0000000000000000e+01
0.0000000000000000e+00 2.0000000000000000e+01
ITEM: ATOMS id mol type xu yu zu
1 1 1 0.73610642 10.03502 10.200307
2 1 1 1.8676007 10.056407 9.8266453
3 1 1 3.2435922 10.00789 10.134443
4 1 1 3.9257509 9.7598648 10.208236
5 1 1 5.3155918 9.9604033 9.8639318
6 1 1 5.861133 9.7451367 9.910724
7 1 1 6.7691062 10.166307 9.9642294
8 1 1 8.3361972 10.153388 9.7656565
9 1 1 8.9684666 9.7378547 10.204202
10 1 1 10.04562 9.9840989 10.04847
11 1 1 10.846036 9.6697132 9.7568781
12 1 1 12.306609 10.26742 10.223707
13 1 1 13.091027 10.205668 10.204555
14 1 1 13.896269 9.7474413 9.899171
15 1 1 14.996384 9.987711 9.9878275
16 1 1 15.747868 10.014635 9.6939384
17 1 1 16.94338 9.9187262 9.8719091
18 1 1 17.682682 10.379804 10.047944
19 1 1 18.869642 10.292841 10.100551
20 1 1 20.258729 9.7707303 9.9975886
ITEM: TIMESTEP
300
ITEM: NUMBER OF ATOMS
20
ITEM: BOX BOUNDS pp pp pp
0.0000000000000000e+00 2.0000000000000000e+01
0.0000000000000000e+00 2.0000000000000000e+01
0.0000000000000000e+00 2.0000000000000000e+01
ITEM: ATOMS id mol type xu yu zu
1 1 1 0.73474002 10.042947 10.292968
2 1 1 1.8096885 10.088359 9.7881589
3 1 1 3.2353308 10.030168 10.226709
4 1 1 4.0472707 9.6652274 10.308216
5 1 1 5.4122122 9.9376317 9.9013337
6 1 1 5.7703158 9.5712158 9.8372989
7 1 1 6.7446666 10.203249 9.9393817
8 1 1 8.4369382 10.248318 9.6573596
9 1 1 8.9226486 9.6066122 10.236354
10 1 1 10.053666 10.030524 10.08696
11 1 1 10.850075 9.563666 9.7245991
12 1 1 12.368479 10.332283 10.243949
13 1 1 13.149619 10.297098 10.311924
14 1 1 13.844134 9.5776028 9.7839652
15 1 1 14.966729 9.9617961 9.9603572
16 1 1 15.681214 10.006783 9.521294
17 1 1 16.896496 9.8644972 9.8132557
18 1 1 17.612512 10.54494 10.076545
19 1 1 18.863562 10.394681 10.147074
20 1 1 20.357785 9.6326997 9.927605
ITEM: TIMESTEP
400
ITEM: NUMBER OF ATOMS
20
ITEM: BOX BOUNDS pp pp pp
0.0000000000000000e+00 2.0000000000000000e+01
0.0000000000000000e+00 2.0000000000000000e+01
0.0000000000000000e+00 2.0000000000000000e+01
ITEM: ATOMS id mol type xu yu zu
1 1 1 0.82074902 10.116446 10.33933
2 1 1 1.7917649 10.149474 9.7197328
3 1 1 3.2014693 10.066267 10.281373
4 1 1 4.2553435 9.5055233 10.393415
5 1 1 5.5007178 9.8618082 9.9789489
6 1 1 5.7730935 9.375582 9.7140757
7 1 1 6.8042754 10.223556 9.9276666
8 1 1 8.4478238 10.352144 9.5427984
9 1 1 8.9268859 9.5006224 10.241441
10 1 1 10.037654 10.058086 10.144674
11 1 1 10.873857 9.543152 9.7042117
12 1 1 12.338218 10.334437 10.225466
13 1 1 13.301176 10.333191 10.389604
14 1 1 13.854769 9.4066254 9.6292555
15 1 1 14.915113 9.9409899 9.8830213
16 1 1 15.601232 10.037811 9.3737653
17 1 1 16.840794 9.8431471 9.7479886
18 1 1 17.515288 10.638858 10.059226
19 1 1 18.905024 10.460416 10.147652
20 1 1 20.34785 9.5069721 9.8544095
ITEM: TIMESTEP
500
ITEM: NUMBER OF ATOMS
20
ITEM: BOX BOUNDS pp pp pp
0.0000000000000000e+00 2.0000000000000000e+01
0.0000000000000000e+00 2.0000000000000000e+01
0.0000000000000000e+00 2.0000000000000000e+01
ITEM: ATOMS id mol type xu yu zu
1 1 1 0.95837365 10.219672 10.368763
2 1 1 1.8246639 10.086376 9.6214202
3 1 1 3.1592565 10.125379 10.294497
4 1 1 4.4879089 9.379127 10.415485
5 1 1 5.5305598 9.7892163 10.0655
6 1 1 5.8081306 9.1716705 9.5433126
7 1 1 6.9275645 10.270223 9.9260124
8 1 1 8.3589612 10.38801 9.4545408
9 1 1 8.8584771 9.4184412 10.233737
10 1 1 10.005031 10.131081 10.174748
11 1 1 10.954677 9.5842828 9.7117323
12 1 1 12.261776 10.322483 10.209551
13 1 1 13.460259 10.316981 10.449085
14 1 1 13.904128 9.2992908 9.4741808
15 1 1 14.806687 9.9061504 9.7823477
16 1 1 15.485526 10.010118 9.2527843
17 1 1 16.823575 9.8585187 9.7251536
18 1 1 17.46146 10.742641 10.057441
19 1 1 18.960539 10.417565 10.135547
20 1 1 20.177852 9.404283 9.767527
ITEM: TIMESTEP
600
ITEM: NUMBER OF ATOMS
20
ITEM: BOX BOUNDS pp pp pp
0.0000000000000000e+00 2.0000000000000000e+01
0.0000000000000000e+00 2.0000000000000000e+01
0.0000000000000000e+00 2.0000000000000000e+01
ITEM: ATOMS id mol type xu yu zu
1 1 1 1.0800472 10.317999 10.352109
2 1 1 1.8259602 10.025798 9.5243487
3 1 1 3.064956 10.095533 10.258137
4 1 1 4.6912151 9.2884267 10.396805
5 1 1 5.534706 9.7106655 10.113039
6 1 1 5.8532135 8.9970842 9.2973169
7 1 1 7.0421534 10.313815 9.9037322
8 1 1 8.270627 10.447839 9.3849325
9 1 1 8.758747 9.3449033 10.211356
10 1 1 9.9954812 10.181395 10.155
11 1 1 11.078939 9.6747636 9.7497319
12 1 1 12.118905 10.264159 10.181593
13 1 1 13.620916 10.283399 10.448616
14 1 1 13.927195 9.2936617 9.3628074
15 1 1 14.684521 9.9053755 9.7253767
16 1 1 15.437496 10.006775 9.0875256
17 1 1 16.811634 9.9104071 9.699586
18 1 1 17.500083 10.840071 10.067658
19 1 1 18.973137 10.303776 10.093996
20 1 1 19.90406 9.3091978 9.7290433
ITEM: TIMESTEP
700
ITEM: NUMBER OF ATOMS
20
ITEM: BOX BOUNDS pp pp pp
0.0000000000000000e+00 2.0000000000000000e+01
0.0000000000000000e+00 2.0000000000000000e+01
0.0000000000000000e+00 2.0000000000000000e+01
ITEM: ATOMS id mol type xu yu zu
1 1 1 1.1928031 10.411143 10.314152
2 1 1 1.8055802 10.050426 9.417295
3 1 1 3.0250381 10.004987 10.195042
4 1 1 4.8795106 9.264824 10.400431
5 1 1 5.5674555 9.621709 10.091606
6 1 1 5.8932249 8.9011363 9.0667625
7 1 1 7.091495 10.280645 9.855959
8 1 1 8.1966636 10.452406 9.3849427
9 1 1 8.7114851 9.3423156 10.072609
10 1 1 10.03619 10.185358 10.166315
11 1 1 11.22496 9.7794307 9.8027161
12 1 1 11.972521 10.218427 10.17754
13 1 1 13.716395 10.245565 10.405832
14 1 1 13.990212 9.3525908 9.3768503
15 1 1 14.582179 9.9374645 9.5933142
16 1 1 15.50126 9.9713216 8.8903801
17 1 1 16.831116 9.9847898 9.6330777
18 1 1 17.573992 10.835199 10.108538
19 1 1 18.958195 10.196112 10.08706
20 1 1 19.610154 9.2762487 9.7423402
ITEM: TIMESTEP
800
ITEM: NUMBER OF ATOMS
20
ITEM: BOX BOUNDS pp pp pp
0.0000000000000000e+00 2.0000000000000000e+01
0.0000000000000000e+00 2.0000000000000000e+01
0.0000000000000000e+00 2.0000000000000000e+01
ITEM: ATOMS id mol type xu yu zu
1 1 1 1.3188734 10.464174 10.285178
2 1 1 1.782923 10.112594 9.3739013
3 1 1 3.0786088 9.8176865 10.120476
4 1 1 4.931084 9.2536744 10.393725
5 1 1 5.6779443 9.5095125 10.037202
6 1 1 5.940388 8.8969958 8.9238151
7 1 1 7.1506143 10.204128 9.7914832
8 1 1 8.1637045 10.413135 9.4048538
9 1 1 8.6797542 9.3978284 9.9461391
10 1 1 10.075699 10.133493 10.181445
11 1 1 11.407055 9.8515389 9.8583573
12 1 1 11.955195 10.119641 10.215042
13 1 1 13.726561 10.166184 10.337192
14 1 1 14.04253 9.4681459 9.3961756
15 1 1 14.576365 9.9990013 9.4974475
16 1 1 15.61663 9.8856079 8.7481398
17 1 1 16.776829 10.028116 9.5861685
18 1 1 17.665228 10.779425 10.170966
19 1 1 18.891821 10.078259 10.070694
20 1 1 19.344453 9.2872492 9.7816371
ITEM: TIMESTEP
900
ITEM: NUMBER OF ATOMS
20
ITEM: BOX BOUNDS pp pp pp
0.0000000000000000e+00 2.0000000000000000e+01
0.0000000000000000e+00 2.0000000000000000e+01
0.0000000000000000e+00 2.0000000000000000e+01
ITEM: ATOMS id mol type xu yu zu
1 1 1 1.4968569 10.490494 10.195835
2 1 1 1.7584288 10.160644 9.379517
3 1 1 3.1007562 9.532406 10.080581
4 1 1 4.8786335 9.3089117 10.410046
5 1 1 5.726014 9.3661989 9.9459469
6 1 1 5.9776834 8.9568393 8.8441411
7 1 1 7.1971027 10.143615 9.6971175
8 1 1 8.197731 10.37165 9.4504965
9 1 1 8.6698045 9.4861199 9.8169349
10 1 1 10.154125 10.044778 10.235662
11 1 1 11.511653 9.9694587 9.9098521
12 1 1 12.0803 10.044875 10.246461
13 1 1 13.614747 10.110127 10.198221
14 1 1 14.121792 9.5919254 9.4583204
15 1 1 14.63506 10.000014 9.3686779
16 1 1 15.745074 9.8536398 8.613933
17 1 1 16.72431 10.084636 9.5025856
18 1 1 17.803365 10.698229 10.225044
19 1 1 18.83608 9.990305 10.108766
20 1 1 19.131747 9.2994769 9.83484
ITEM: TIMESTEP
1000
ITEM: NUMBER OF ATOMS
20
ITEM: BOX BOUNDS pp pp pp
0.0000000000000000e+00 2.0000000000000000e+01
0.0000000000000000e+00 2.0000000000000000e+01
0.0000000000000000e+00 2.0000000000000000e+01
ITEM: ATOMS id mol type xu yu zu
1 1 1 1.6807182 10.499614 10.107196
2 1 1 1.7612468 10.143442 9.4262885
3 1 1 3.1326332 9.2540133 9.9982047
4 1 1 4.7745575 9.3741941 10.40959
5 1 1 5.7374466 9.2190337 9.8854251
6 1 1 6.0218161 9.1031077 8.8428102
7 1 1 7.1624118 10.111651 9.5445561
8 1 1 8.2430443 10.300817 9.5019911
9 1 1 8.7685751 9.6462147 9.7044886
10 1 1 10.210698 9.9577245 10.298985
11 1 1 11.552961 10.092441 9.9994768
12 1 1 12.355273 10.065918 10.291377
13 1 1 13.439132 10.18723 10.063229
14 1 1 14.133342 9.6878884 9.5243891
15 1 1 14.740427 10.073101 9.2417189
16 1 1 15.837756 9.8905235 8.5786415
17 1 1 16.638206 10.182584 9.4528087
18 1 1 17.891196 10.659783 10.231881
19 1 1 18.74698 9.9607941 10.243086
20 1 1 18.886945 9.3033951 9.8270402
ITEM: TIMESTEP
1100
ITEM: NUMBER OF ATOMS
20
ITEM: BOX BOUNDS pp pp pp
0.0000000000000000e+00 2.0000000000000000e+01
0.0000000000000000e+00 2.0000000000000000e+01
0.0000000000000000e+00 2.0000000000000000e+01
ITEM: ATOMS id mol type xu yu zu
1 1 1 1.8516324 10.586517 10.04181
2 1 1 1.8249894 10.050454 9.478964
3 1 1 3.1390635 9.0379114 9.8855789
4 1 1 4.6279862 9.4237296 10.332946
5 1 1 5.7125283 9.1213533 9.8459004
6 1 1 6.09473 9.3447288 8.9291324
7 1 1 7.1005302 10.051735 9.3818964
8 1 1 8.2635611 10.217881 9.5436048
9 1 1 8.9531133 9.8242628 9.58409
10 1 1 10.325112 9.8867912 10.32344
11 1 1 11.540854 10.190371 10.096954
12 1 1 12.703745 10.117133 10.290172
13 1 1 13.287621 10.328785 9.9625119
14 1 1 14.113917 9.7115944 9.5321775
15 1 1 14.880676 10.141369 9.0921541
16 1 1 15.91681 9.9481871 8.5756999
17 1 1 16.549261 10.306054 9.4170452
18 1 1 17.918094 10.601226 10.183738
19 1 1 18.63417 9.9284202 10.432642
20 1 1 18.70165 9.303234 9.7479147
ITEM: TIMESTEP
1200
ITEM: NUMBER OF ATOMS
20
ITEM: BOX BOUNDS pp pp pp
0.0000000000000000e+00 2.0000000000000000e+01
0.0000000000000000e+00 2.0000000000000000e+01
0.0000000000000000e+00 2.0000000000000000e+01
ITEM: ATOMS id mol type xu yu zu
1 1 1 1.9728522 10.720877 9.9652686
2 1 1 1.9922347 9.9091293 9.5340179
3 1 1 3.1460796 8.8786618 9.7376303
4 1 1 4.4928607 9.4137559 10.216748
5 1 1 5.6589011 9.1093549 9.8441403
6 1 1 6.2024507 9.6045165 9.0031408
7 1 1 6.9641237 9.9783262 9.2240286
8 1 1 8.2498567 10.14337 9.5500256
9 1 1 9.1253397 9.9278123 9.4628326
10 1 1 10.47752 9.8806476 10.212337
11 1 1 11.52513 10.301097 10.220993
12 1 1 12.927918 10.228389 10.321467
13 1 1 13.185953 10.447263 9.792649
14 1 1 14.111074 9.6840108 9.5540838
15 1 1 15.045926 10.138652 8.989647
16 1 1 15.974036 9.9873082 8.5525021
17 1 1 16.554412 10.452304 9.42113
18 1 1 17.8828 10.54968 10.134163
19 1 1 18.545779 9.9183695 10.612
20 1 1 18.533781 9.3245992 9.6005414
ITEM: TIMESTEP
1300
ITEM: NUMBER OF ATOMS
20
ITEM: BOX BOUNDS pp pp pp
0.0000000000000000e+00 2.0000000000000000e+01
0.0000000000000000e+00 2.0000000000000000e+01
0.0000000000000000e+00 2.0000000000000000e+01
ITEM: ATOMS id mol type xu yu zu
1 1 1 2.1039455 10.82997 9.9299275
2 1 1 2.1907943 9.7651678 9.5806435
3 1 1 3.1611871 8.7865175 9.6025448
4 1 1 4.3616485 9.3749215 10.089339
5 1 1 5.5244473 9.1436975 9.8677946
6 1 1 6.2496307 9.8063319 9.0534916
7 1 1 6.863347 9.9643057 9.0554364
8 1 1 8.2040256 10.012601 9.5239246
9 1 1 9.260725 9.9762887 9.4104065
10 1 1 10.626632 9.9423914 10.057792
11 1 1 11.588517 10.417461 10.298053
12 1 1 13.060285 10.325658 10.382527
13 1 1 13.123702 10.576818 9.642381
14 1 1 14.082751 9.6704507 9.5882678
15 1 1 15.173614 10.158179 8.9306272
16 1 1 16.059516 10.002229 8.528573
17 1 1 16.592941 10.575967 9.4967667
18 1 1 17.764835 10.50637 10.069092
19 1 1 18.458596 9.9161529 10.797377
20 1 1 18.36212 9.3738946 9.5023807
ITEM: TIMESTEP
1400
ITEM: NUMBER OF ATOMS
20
ITEM: BOX BOUNDS pp pp pp
0.0000000000000000e+00 2.0000000000000000e+01
0.0000000000000000e+00 2.0000000000000000e+01
0.0000000000000000e+00 2.0000000000000000e+01
ITEM: ATOMS id mol type xu yu zu
1 1 1 2.2172369 11.009025 9.8783991
2 1 1 2.3587828 9.644785 9.6184342
3 1 1 3.2740206 8.7544842 9.5315147
4 1 1 4.2517175 9.3383878 9.9712284
5 1 1 5.3899373 9.2098141 9.8443285
6 1 1 6.2672953 9.8976347 9.1644128
7 1 1 6.7957993 10.002338 8.9642374
8 1 1 8.1222663 9.8288044 9.4996282
9 1 1 9.4644886 10.014966 9.374739
10 1 1 10.747894 10.071847 9.9339646
11 1 1 11.712587 10.505309 10.322325
12 1 1 13.156603 10.355283 10.430556
13 1 1 13.077095 10.662234 9.4995012
14 1 1 14.024967 9.7134943 9.6085994
15 1 1 15.288595 10.208994 8.8582044
16 1 1 16.136299 9.9878439 8.5384071
17 1 1 16.632936 10.635335 9.5415385
18 1 1 17.570571 10.47916 10.007266
19 1 1 18.351744 9.9315195 10.913189
20 1 1 18.315961 9.3889734 9.4246474
ITEM: TIMESTEP
1500
ITEM: NUMBER OF ATOMS
20
ITEM: BOX BOUNDS pp pp pp
0.0000000000000000e+00 2.0000000000000000e+01
0.0000000000000000e+00 2.0000000000000000e+01
0.0000000000000000e+00 2.0000000000000000e+01
ITEM: ATOMS id mol type xu yu zu
1 1 1 2.3302453 11.165518 9.8509061
2 1 1 2.5603289 9.5655089 9.598805
3 1 1 3.3900114 8.7438679 9.4942124
4 1 1 4.1517888 9.3417774 9.8961731
5 1 1 5.2824523 9.3096226 9.7604932
6 1 1 6.2698004 9.9248268 9.3002024
7 1 1 6.8379638 9.9637444 8.8727772
8 1 1 8.0201229 9.6045364 9.4483625
9 1 1 9.6907683 10.008865 9.3464622
10 1 1 10.83666 10.217949 9.8436402
11 1 1 11.838171 10.534563 10.27573
12 1 1 13.246356 10.342035 10.436187
13 1 1 13.056063 10.6919 9.3235752
14 1 1 14.034005 9.8558125 9.5312899
15 1 1 15.42406 10.285092 8.7364853
16 1 1 16.21295 9.9480273 8.6209265
17 1 1 16.679869 10.663852 9.5808266
18 1 1 17.395515 10.515456 9.9654365
19 1 1 18.233931 9.9590788 10.929778
20 1 1 18.334166 9.4229566 9.3759873
ITEM: TIMESTEP
1600
ITEM: NUMBER OF ATOMS
20
ITEM: BOX BOUNDS pp pp pp
0.0000000000000000e+00 2.0000000000000000e+01
0.0000000000000000e+00 2.0000000000000000e+01
0.0000000000000000e+00 2.0000000000000000e+01
ITEM: ATOMS id mol type xu yu zu
1 1 1 2.4381214 11.213752 9.849375
2 1 1 2.7449703 9.5482596 9.5473195
3 1 1 3.473846 8.7299175 9.4188909
4 1 1 4.1191313 9.377885 9.8594976
5 1 1 5.2016581 9.396086 9.6452151
6 1 1 6.1687057 9.9219756 9.419443
7 1 1 6.9113243 9.8949104 8.8383225
8 1 1 7.9938894 9.4199779 9.3720611
9 1 1 9.8747901 9.9702466 9.310416
10 1 1 10.932981 10.321153 9.7588883
11 1 1 11.952524 10.601587 10.267838
12 1 1 13.289965 10.355297 10.415455
13 1 1 13.033678 10.721809 9.1866277
14 1 1 14.122623 10.095003 9.4023232
15 1 1 15.516823 10.378874 8.654319
16 1 1 16.231468 9.9072717 8.7284981
17 1 1 16.634888 10.731903 9.6545461
18 1 1 17.296277 10.564901 9.964763
19 1 1 18.13373 9.9673897 10.875848
20 1 1 18.401103 9.4106956 9.4583646
ITEM: TIMESTEP
1700
ITEM: NUMBER OF ATOMS
20
ITEM: BOX BOUNDS pp pp pp
0.0000000000000000e+00 2.0000000000000000e+01
0.0000000000000000e+00 2.0000000000000000e+01
0.0000000000000000e+00 2.0000000000000000e+01
ITEM: ATOMS id mol type xu yu zu
1 1 1 2.5095796 11.232229 9.8759843
2 1 1 2.9099785 9.5970055 9.5187414
3 1 1 3.5728441 8.7188406 9.3621186
4 1 1 4.1016275 9.3431768 9.8396367
5 1 1 5.0977229 9.4529506 9.5706743
6 1 1 6.0330987 9.8868606 9.5496065
7 1 1 6.9866453 9.8035932 8.8285956
8 1 1 8.0605361 9.3095873 9.2302872
9 1 1 9.9430119 9.9300795 9.2954359
10 1 1 11.020657 10.40808 9.7185508
11 1 1 12.032778 10.622757 10.263837
12 1 1 13.273829 10.390758 10.373712
13 1 1 13.021715 10.708201 9.1227825
14 1 1 14.263832 10.339394 9.2754134
15 1 1 15.530526 10.511082 8.5826161
16 1 1 16.296579 9.8901786 8.8877212
17 1 1 16.573904 10.802477 9.7159056
18 1 1 17.299133 10.594585 9.991642
19 1 1 18.008029 9.9882769 10.720959
20 1 1 18.45834 9.4070797 9.6115557
ITEM: TIMESTEP
1800
ITEM: NUMBER OF ATOMS
20
ITEM: BOX BOUNDS pp pp pp
0.0000000000000000e+00 2.0000000000000000e+01
0.0000000000000000e+00 2.0000000000000000e+01
0.0000000000000000e+00 2.0000000000000000e+01
ITEM: ATOMS id mol type xu yu zu
1 1 1 2.5814977 11.194068 9.9123158
2 1 1 3.0802149 9.6876299 9.5671168
3 1 1 3.709965 8.7745225 9.2408409
4 1 1 4.1127914 9.2696195 9.8402963
5 1 1 5.0476051 9.5287081 9.4874826
6 1 1 5.880717 9.9139784 9.6425938
7 1 1 7.0466149 9.7198696 8.8839962
8 1 1 8.1422358 9.2581933 9.1237243
9 1 1 9.9020014 9.9681413 9.3008211
10 1 1 11.093715 10.465817 9.712346
11 1 1 12.118021 10.61356 10.243849
12 1 1 13.193043 10.417749 10.328428
13 1 1 13.092418 10.74935 9.1380279
14 1 1 14.383284 10.561644 9.1193288
15 1 1 15.512843 10.59606 8.5599163
16 1 1 16.399891 9.8956271 9.0715788
17 1 1 16.505236 10.890597 9.7609728
18 1 1 17.366747 10.629077 10.015052
19 1 1 17.911999 9.9834525 10.502061
20 1 1 18.471884 9.409682 9.7616366
ITEM: TIMESTEP
1900
ITEM: NUMBER OF ATOMS
20
ITEM: BOX BOUNDS pp pp pp
0.0000000000000000e+00 2.0000000000000000e+01
0.0000000000000000e+00 2.0000000000000000e+01
0.0000000000000000e+00 2.0000000000000000e+01
ITEM: ATOMS id mol type xu yu zu
1 1 1 2.6416693 11.071275 9.946063
2 1 1 3.1917254 9.8388907 9.5567065
3 1 1 3.8323117 8.8795638 9.0786515
4 1 1 4.116459 9.1879034 9.826678
5 1 1 4.9864958 9.6128391 9.4654648
6 1 1 5.7610869 10.002503 9.6793216
7 1 1 7.1068896 9.7019659 8.9786607
8 1 1 8.2531851 9.2343042 9.0389101
9 1 1 9.8011339 9.9536336 9.3346676
10 1 1 11.102858 10.550466 9.7371455
11 1 1 12.127882 10.592933 10.250272
12 1 1 13.116993 10.450979 10.294453
13 1 1 13.235654 10.77629 9.2273768
14 1 1 14.499131 10.815736 8.9474625
15 1 1 15.488846 10.640304 8.5385727
16 1 1 16.466751 9.9375569 9.2496997
17 1 1 16.407463 10.944741 9.8038357
18 1 1 17.511008 10.700046 10.011939
19 1 1 17.82651 9.9850804 10.286093
20 1 1 18.558172 9.450601 9.8817242
ITEM: TIMESTEP
2000
ITEM: NUMBER OF ATOMS
20
ITEM: BOX BOUNDS pp pp pp
0.0000000000000000e+00 2.0000000000000000e+01
0.0000000000000000e+00 2.0000000000000000e+01
0.0000000000000000e+00 2.0000000000000000e+01
ITEM: ATOMS id mol type xu yu zu
1 1 1 2.6536156 10.950723 9.9523787
2 1 1 3.2662586 9.9752108 9.4916808
3 1 1 3.9492524 9.0074988 8.9261753
4 1 1 4.1121898 9.0990096 9.8327466
5 1 1 4.9596931 9.6218539 9.4247562
6 1 1 5.6281757 10.120979 9.6965707
7 1 1 7.14557 9.6708758 9.0983909
8 1 1 8.36563 9.2467442 8.9746337
9 1 1 9.7152194 9.9674718 9.4016315
10 1 1 11.074204 10.584512 9.7457015
11 1 1 12.144833 10.551092 10.188243
12 1 1 13.003245 10.557358 10.289004
13 1 1 13.464435 10.819984 9.3159605
14 1 1 14.608533 11.075028 8.8011656
15 1 1 15.482556 10.673929 8.5822031
16 1 1 16.490241 10.027874 9.3693005
17 1 1 16.383688 10.968658 9.848079
18 1 1 17.667231 10.787994 10.029848
19 1 1 17.759986 9.9546865 10.110433
20 1 1 18.653027 9.5053289 10.011954
ITEM: TIMESTEP
2100
ITEM: NUMBER OF ATOMS
20
ITEM: BOX BOUNDS pp pp pp
0.0000000000000000e+00 2.0000000000000000e+01
0.0000000000000000e+00 2.0000000000000000e+01
0.0000000000000000e+00 2.0000000000000000e+01
ITEM: ATOMS id mol type xu yu zu
1 1 1 2.6313864 10.819169 9.9964526
2 1 1 3.31885 10.071001 9.4149464
3 1 1 4.0246211 9.1163012 8.7928711
4 1 1 4.1140661 8.9928972 9.7872543
5 1 1 4.9512995 9.5204824 9.3298332
6 1 1 5.5693629 10.264077 9.661977
7 1 1 7.1621297 9.6356105 9.168314
8 1 1 8.471759 9.3153056 8.9498911
9 1 1 9.7084369 9.9911176 9.441322
10 1 1 11.018768 10.583075 9.7379519
11 1 1 12.132576 10.517499 10.170697
12 1 1 12.936104 10.627563 10.277879
13 1 1 13.698964 10.777303 9.4349045
14 1 1 14.731193 11.318774 8.7207204
15 1 1 15.452878 10.694192 8.6927468
16 1 1 16.493922 10.067834 9.4321298
17 1 1 16.431712 10.957982 9.9076025
18 1 1 17.818687 10.889029 10.04487
19 1 1 17.741393 9.8871816 9.9569241
20 1 1 18.774516 9.5667734 10.174091
ITEM: TIMESTEP
2200
ITEM: NUMBER OF ATOMS
20
ITEM: BOX BOUNDS pp pp pp
0.0000000000000000e+00 2.0000000000000000e+01
0.0000000000000000e+00 2.0000000000000000e+01
0.0000000000000000e+00 2.0000000000000000e+01
ITEM: ATOMS id mol type xu yu zu
1 1 1 2.6395911 10.689313 10.080427
2 1 1 3.3152633 10.158557 9.2843246
3 1 1 4.027315 9.2931726 8.704044
4 1 1 4.0651625 8.8694071 9.7953658
5 1 1 4.9072493 9.4208489 9.2043925
6 1 1 5.5935913 10.383206 9.5371527
7 1 1 7.173751 9.6409534 9.2508258
8 1 1 8.5610043 9.4150339 8.9744042
9 1 1 9.6942567 9.994023 9.4764267
10 1 1 10.94373 10.578676 9.7301619
11 1 1 12.061611 10.525927 10.16162
12 1 1 12.938529 10.711597 10.295102
13 1 1 13.858521 10.753045 9.5101188
14 1 1 14.760141 11.498499 8.656271
15 1 1 15.407691 10.756245 8.8100018
16 1 1 16.474133 10.088461 9.4698156
17 1 1 16.477451 10.961209 9.9715679
18 1 1 17.9023 10.994656 10.062949
19 1 1 17.800626 9.8265454 9.7763027
20 1 1 18.882165 9.6142334 10.376918
ITEM: TIMESTEP
2300
ITEM: NUMBER OF ATOMS
20
ITEM: BOX BOUNDS pp pp pp
0.0000000000000000e+00 2.0000000000000000e+01
0.0000000000000000e+00 2.0000000000000000e+01
0.0000000000000000e+00 2.0000000000000000e+01
ITEM: ATOMS id mol type xu yu zu
1 1 1 2.6752671 10.540491 10.145535
2 1 1 3.3560687 10.268497 9.1354977
3 1 1 3.9601297 9.4594153 8.6710446
4 1 1 4.0375635 8.7610834 9.8194356
5 1 1 4.8765477 9.3005045 9.0658922
6 1 1 5.6454033 10.403246 9.3993377
7 1 1 7.1505213 9.7529355 9.3105923
8 1 1 8.635363 9.5718978 9.045484
9 1 1 9.71344 10.006308 9.4990143
10 1 1 10.897378 10.581613 9.6659314
11 1 1 11.959147 10.597416 10.190819
12 1 1 12.958731 10.800176 10.305834
13 1 1 13.995122 10.777488 9.6065831
14 1 1 14.69585 11.640464 8.5906603
15 1 1 15.406153 10.841151 8.9281019
16 1 1 16.412849 10.077398 9.5171306
17 1 1 16.599771 10.96261 10.06989
18 1 1 17.979168 11.098865 10.064639
19 1 1 17.919646 9.7919097 9.6058747
20 1 1 18.996041 9.6484647 10.550868
ITEM: TIMESTEP
2400
ITEM: NUMBER OF ATOMS
20
ITEM: BOX BOUNDS pp pp pp
0.0000000000000000e+00 2.0000000000000000e+01
0.0000000000000000e+00 2.0000000000000000e+01
0.0000000000000000e+00 2.0000000000000000e+01
ITEM: ATOMS id mol type xu yu zu
1 1 1 2.7312285 10.451135 10.205959
2 1 1 3.391614 10.346921 9.0282371
3 1 1 3.9339578 9.5936783 8.700777
4 1 1 3.9856612 8.6820456 9.8379255
5 1 1 4.8549385 9.1688236 8.9450304
6 1 1 5.7689594 10.363617 9.2916534
7 1 1 7.1172324 9.8918812 9.3727106
8 1 1 8.6980507 9.7548779 9.1220082
9 1 1 9.7191915 9.981733 9.4816478
10 1 1 10.877751 10.608949 9.6287556
11 1 1 11.834215 10.664704 10.200606
12 1 1 12.972536 10.911227 10.278112
13 1 1 14.136798 10.860286 9.6969343
14 1 1 14.605019 11.797419 8.5761534
15 1 1 15.355936 10.944451 9.0604525
16 1 1 16.341389 10.027153 9.5154368
17 1 1 16.749153 11.038654 10.175411
18 1 1 18.027148 11.241615 10.063148
19 1 1 18.063771 9.8313737 9.5234569
20 1 1 19.030157 9.7232554 10.701445
ITEM: TIMESTEP
2500
ITEM: NUMBER OF ATOMS
20
ITEM: BOX BOUNDS pp pp pp
0.0000000000000000e+00 2.0000000000000000e+01
0.0000000000000000e+00 2.0000000000000000e+01
0.0000000000000000e+00 2.0000000000000000e+01
ITEM: ATOMS id mol type xu yu zu
1 1 1 2.8404393 10.358601 10.244602
2 1 1 3.4307083 10.411792 8.9965326
3 1 1 3.9231638 9.6915252 8.767697
4 1 1 3.8924759 8.6477257 9.8347112
5 1 1 4.8795612 9.0122703 8.8619197
6 1 1 5.9048674 10.272842 9.1829273
7 1 1 7.0707141 10.030625 9.4167226
8 1 1 8.6825665 9.9627243 9.1942754
9 1 1 9.729538 10.003145 9.4967423
10 1 1 10.861369 10.616788 9.5958885
11 1 1 11.689172 10.785732 10.241133
12 1 1 13.038879 10.991562 10.128635
13 1 1 14.236917 11.032293 9.6949739
14 1 1 14.548432 11.839991 8.5989778
15 1 1 15.320602 11.034294 9.2265267
16 1 1 16.304226 10.046783 9.5124774
17 1 1 16.993175 11.120013 10.303802
18 1 1 18.034604 11.301481 10.046013
19 1 1 18.210491 9.9366918 9.5343145
20 1 1 19.065216 9.7816474 10.806123
ITEM: TIMESTEP
2600
ITEM: NUMBER OF ATOMS
20
ITEM: BOX BOUNDS pp pp pp
0.0000000000000000e+00 2.0000000000000000e+01
0.0000000000000000e+00 2.0000000000000000e+01
0.0000000000000000e+00 2.0000000000000000e+01
ITEM: ATOMS id mol type xu yu zu
1 1 1 2.9779973 10.203973 10.180617
2 1 1 3.4596507 10.534149 8.9904166
3 1 1 3.909283 9.7161441 8.8121872
4 1 1 3.8373316 8.6356725 9.7828275
5 1 1 4.9223538 8.9098323 8.8481337
6 1 1 6.0141969 10.171714 9.0791789
7 1 1 7.0695588 10.138749 9.4428377
8 1 1 8.6077151 10.105574 9.2733529
9 1 1 9.7621585 10.016811 9.5643823
10 1 1 10.859587 10.547882 9.5371093
11 1 1 11.607969 10.930129 10.298848
12 1 1 13.064586 11.051661 9.9456784
13 1 1 14.355046 11.19755 9.6861962
14 1 1 14.504611 11.832343 8.6713502
15 1 1 15.31718 11.112322 9.3355102
16 1 1 16.192344 10.109563 9.6149956
17 1 1 17.238962 11.13559 10.391792
18 1 1 18.02225 11.316944 10.023779
19 1 1 18.369442 10.065619 9.6137964
20 1 1 19.111876 9.8249675 10.88536
ITEM: TIMESTEP
2700
ITEM: NUMBER OF ATOMS
20
ITEM: BOX BOUNDS pp pp pp
0.0000000000000000e+00 2.0000000000000000e+01
0.0000000000000000e+00 2.0000000000000000e+01
0.0000000000000000e+00 2.0000000000000000e+01
ITEM: ATOMS id mol type xu yu zu
1 1 1 3.1312429 10.032067 10.115128
2 1 1 3.4969819 10.67772 8.9733455
3 1 1 3.8657106 9.692963 8.858064
4 1 1 3.8286044 8.6493691 9.6386324
5 1 1 5.0101552 8.8338403 8.825084
6 1 1 6.0733979 10.043308 9.0206048
7 1 1 7.0764726 10.199873 9.4639965
8 1 1 8.481871 10.234889 9.3377578
9 1 1 9.8028793 10.01984 9.6128316
10 1 1 10.829432 10.457603 9.463441
11 1 1 11.603808 11.031483 10.34604
12 1 1 13.02473 11.131018 9.7604181
13 1 1 14.43534 11.405096 9.6336629
14 1 1 14.469862 11.795352 8.771373
15 1 1 15.311232 11.113673 9.4266151
16 1 1 16.111534 10.252408 9.8043781
17 1 1 17.399404 11.071536 10.378039
18 1 1 17.971367 11.239 10.005346
19 1 1 18.537943 10.226747 9.7038529
20 1 1 19.159772 9.9001648 10.939828
ITEM: TIMESTEP
2800
ITEM: NUMBER OF ATOMS
20
ITEM: BOX BOUNDS pp pp pp
0.0000000000000000e+00 2.0000000000000000e+01
0.0000000000000000e+00 2.0000000000000000e+01
0.0000000000000000e+00 2.0000000000000000e+01
ITEM: ATOMS id mol type xu yu zu
1 1 1 3.3172301 9.83967 10.058915
2 1 1 3.5671855 10.784966 8.9809635
3 1 1 3.8596713 9.6537529 8.9403878
4 1 1 3.8766359 8.6609779 9.4396994
5 1 1 5.0809799 8.7764437 8.8304337
6 1 1 6.1029078 9.8947237 8.960394
7 1 1 7.0840195 10.206893 9.5051992
8 1 1 8.3476638 10.36823 9.4233437
9 1 1 9.8416661 10.065796 9.62909
10 1 1 10.806572 10.420442 9.4162735
11 1 1 11.683498 11.042058 10.392284
12 1 1 12.955978 11.206344 9.5407182
13 1 1 14.474711 11.597961 9.5729742
14 1 1 14.425886 11.734138 8.8757384
15 1 1 15.296351 11.089028 9.568868
16 1 1 16.035856 10.463628 9.9889326
17 1 1 17.419787 10.925873 10.35405
18 1 1 17.963461 11.171129 9.9546913
19 1 1 18.707172 10.348763 9.8722877
20 1 1 19.248992 10.00022 10.971818
ITEM: TIMESTEP
2900
ITEM: NUMBER OF ATOMS
20
ITEM: BOX BOUNDS pp pp pp
0.0000000000000000e+00 2.0000000000000000e+01
0.0000000000000000e+00 2.0000000000000000e+01
0.0000000000000000e+00 2.0000000000000000e+01
ITEM: ATOMS id mol type xu yu zu
1 1 1 3.5246565 9.7357954 9.9834461
2 1 1 3.6013696 10.843052 8.989482
3 1 1 3.8733468 9.5879672 9.073628
4 1 1 3.9337972 8.688251 9.2407822
5 1 1 5.1463721 8.7937246 8.8402798
6 1 1 6.087905 9.6701691 8.9288516
7 1 1 7.1104625 10.205709 9.5889253
8 1 1 8.2169025 10.448332 9.491054
9 1 1 9.8391524 10.11942 9.6896128
10 1 1 10.826224 10.400158 9.3912965
11 1 1 11.779103 10.945819 10.376188
12 1 1 12.877548 11.236297 9.3240913
13 1 1 14.450416 11.746794 9.5249592
14 1 1 14.359836 11.697158 8.9653412
15 1 1 15.227109 11.085644 9.7085182
16 1 1 16.013254 10.699512 10.182943
17 1 1 17.386197 10.728399 10.351063
18 1 1 17.992614 11.120864 9.9057576
19 1 1 18.900785 10.425233 10.047671
20 1 1 19.361576 10.09096 10.988849
ITEM: TIMESTEP
3000
ITEM: NUMBER OF ATOMS
20
ITEM: BOX BOUNDS pp pp pp
0.0000000000000000e+00 2.0000000000000000e+01
0.0000000000000000e+00 2.0000000000000000e+01
0.0000000000000000e+00 2.0000000000000000e+01
ITEM: ATOMS id mol type xu yu zu
1 1 1 3.7304247 9.6897927 9.8387167
2 1 1 3.5711081 10.805722 9.0152824
3 1 1 3.9089838 9.5617652 9.2551409
4 1 1 4.0149197 8.7066398 9.0448568
5 1 1 5.2063806 8.8860204 8.8414386
6 1 1 6.1040964 9.3861889 8.8924964
7 1 1 7.1097731 10.239132 9.6438717
8 1 1 8.1779469 10.494155 9.6179598
9 1 1 9.8136369 10.115441 9.7698237
10 1 1 10.896225 10.351612 9.4012275
11 1 1 11.87622 10.824976 10.316266
12 1 1 12.811671 11.308526 9.2345511
13 1 1 14.357818 11.873499 9.5301293
14 1 1 14.367054 11.63489 9.0075113
15 1 1 15.146311 11.117385 9.8705903
16 1 1 16.063152 10.977259 10.34604
17 1 1 17.338648 10.573599 10.372688
18 1 1 18.05467 11.031059 9.8678525
19 1 1 19.108189 10.471106 10.183075
20 1 1 19.501846 10.211206 10.988698
ITEM: TIMESTEP
3100
ITEM: NUMBER OF ATOMS
20
ITEM: BOX BOUNDS pp pp pp
0.0000000000000000e+00 2.0000000000000000e+01
0.0000000000000000e+00 2.0000000000000000e+01
0.0000000000000000e+00 2.0000000000000000e+01
ITEM: ATOMS id mol type xu yu zu
1 1 1 3.8322263 9.6949195 9.7034333
2 1 1 3.5341697 10.699359 9.0881513
3 1 1 4.0123119 9.5566615 9.3820993
4 1 1 4.1140771 8.6949079 8.9413316
5 1 1 5.2129921 8.9718189 8.8246326
6 1 1 6.188216 9.1093037 8.8999021