LAMMPS data file

20 atoms
1 atom types
19 bonds
1 bond types

0 20 xlo xhi
0 20 ylo yhi
0 20 zlo zhi

Masses

1 1

Atoms

1 1 1 1.00000 10.0000 10.0000 0 0 0
2 1 1 2.00000 10.0000 10.0000 0 0 0
3 1 1 3.00000 10.0000 10.0000 0 0 0
4 1 1 4.00000 10.0000 10.0000 0 0 0
5 1 1 5.00000 10.0000 10.0000 0 0 0
6 1 1 6.00000 10.0000 10.0000 0 0 0
7 1 1 7.00000 10.0000 10.0000 0 0 0
8 1 1 8.00000 10.0000 10.0000 0 0 0
9 1 1 9.00000 10.0000 10.0000 0 0 0
10 1 1 10.00000 10.0000 10.0000 0 0 0
11 1 1 11.00000 10.0000 10.0000 0 0 0
12 1 1 12.00000 10.0000 10.0000 0 0 0
13 1 1 13.00000 10.0000 10.0000 0 0 0
14 1 1 14.00000 10.0000 10.0000 0 0 0
15 1 1 15.00000 10.0000 10.0000 0 0 0
16 1 1 16.00000 10.0000 10.0000 0 0 0
17 1 1 17.00000 10.0000 10.0000 0 0 0
18 1 1 18.00000 10.0000 10.0000 0 0 0
19 1 1 19.00000 10.0000 10.0000 0 0 0
20 1 1 20.00000 10.0000 10.0000 0 0 0

Bonds

1 1 1 2
2 1 2 3
3 1 3 4
4 1 4 5
5 1 5 6
6 1 6 7
7 1 7 8
8 1 8 9
9 1 9 10
10 1 10 11
11 1 11 12
12 1 12 13
13 1 13 14
14 1 14 15
15 1 15 16
16 1 16 17
17 1 17 18
18 1 18 19
19 1 19 20